 Gaussian 16, Revision A.03,
 Gaussian 16:  ES64L-G16RevA.03 25-Dec-2016

 ----------------------------------------------------------------------
 # mpw1pw91/6-31g(d) nosymm guess=read geom=allcheck irc=(maxpoints=50,
 lqa,rcfc)
 ----------------------------------------------------------------------

 Structure from the checkpoint file:  "ts_cope_irc.chk"
 -----------------------
 ts1-c3 cation [4+5] mpw
 -----------------------
 Charge =  0 Multiplicity = 1

 SCF Done:  E(RmPW1PW91) =  -234.498705662     A.U. after   10 cycles
 SCF Done:  E(RmPW1PW91) =  -234.500284765     A.U. after   12 cycles
 SCF Done:  E(RmPW1PW91) =  -234.502727745     A.U. after   12 cycles
 SCF Done:  E(RmPW1PW91) =  -234.505799003     A.U. after   12 cycles
 SCF Done:  E(RmPW1PW91) =  -234.509245857     A.U. after   12 cycles
 SCF Done:  E(RmPW1PW91) =  -234.512840688     A.U. after   12 cycles
 SCF Done:  E(RmPW1PW91) =  -234.516406034     A.U. after   11 cycles
 SCF Done:  E(RmPW1PW91) =  -234.519822555     A.U. after   11 cycles
 SCF Done:  E(RmPW1PW91) =  -234.523022563     A.U. after   11 cycles
 SCF Done:  E(RmPW1PW91) =  -234.525975049     A.U. after   11 cycles
 SCF Done:  E(RmPW1PW91) =  -234.547875035     A.U. after   10 cycles
 SCF Done:  E(RmPW1PW91) =  -234.547932664     A.U. after   11 cycles
 SCF Done:  E(RmPW1PW91) =  -234.548075974     A.U. after   11 cycles
 SCF Done:  E(RmPW1PW91) =  -234.548198013     A.U. after   11 cycles
 SCF Done:  E(RmPW1PW91) =  -234.548199322     A.U. after   11 cycles
 SCF Done:  E(RmPW1PW91) =  -234.548225403     A.U. after   11 cycles
 SCF Done:  E(RmPW1PW91) =  -234.548286493     A.U. after   11 cycles
 SCF Done:  E(RmPW1PW91) =  -234.548435561     A.U. after   11 cycles
 SCF Done:  E(RmPW1PW91) =  -234.548521627     A.U. after   11 cycles
 SCF Done:  E(RmPW1PW91) =  -234.548518661     A.U. after   11 cycles

                          Input orientation:
 ---------------------------------------------------------------------
 Center     Atomic      Atomic             Coordinates (Angstroms)
 Number     Number       Type             X           Y           Z
 ---------------------------------------------------------------------
      1          6           0        1.504718    0.084046   -0.286227
      2          1           0        1.574653    0.162667   -1.368611
      3          6           0        2.079076    1.020260    0.469075
      4          1           0        2.620895    1.851046    0.033733
      5          1           0        2.042048    0.983294    1.558070
      6          6           0       -1.511321    0.077007    0.281426
      7          1           0       -1.598307    0.150884    1.360413
      8          6           0       -0.733250   -1.094418   -0.235146
      9          1           0       -1.202868   -2.027198    0.105828
     10          1           0       -0.769084   -1.108081   -1.331185
     11          6           0        0.733947   -1.088178    0.237674
     12          1           0        0.768070   -1.097312    1.333367
     13          1           0        1.206910   -2.020037   -0.100118
     14          6           0       -2.073487    1.022914   -0.467011
     15          1           0       -2.619035    1.856932   -0.034828
     16          1           0       -2.019503    0.990241   -1.554174
 ---------------------------------------------------------------------

 Alpha  occ. eigenvalues --  -10.24687 -10.24658 -10.24426 -10.24350 -10.23251
 Alpha  occ. eigenvalues --  -10.23231  -0.83523  -0.78680  -0.73157  -0.64931
 Alpha  occ. eigenvalues --   -0.56977  -0.56563  -0.48232  -0.46958  -0.44246
 Alpha  occ. eigenvalues --   -0.44068  -0.40777  -0.37524  -0.36882  -0.34337
 Alpha  occ. eigenvalues --   -0.34037  -0.26082  -0.25918
 Alpha virt. eigenvalues --    0.03164   0.03496   0.12689   0.12792   0.14460
 Alpha virt. eigenvalues --    0.15956   0.16761   0.19208   0.19249   0.20288
 Alpha virt. eigenvalues --    0.21002   0.21463   0.24972   0.30521   0.32824

 Mulliken charges:
               1
     1  C   -0.064443
     2  H    0.157473
     3  C   -0.391706
     4  H    0.166289
     5  H    0.160750
     6  C   -0.064181
     7  H    0.156876
     8  C   -0.376102
     9  H    0.176614
    10  H    0.170515
    11  C   -0.374809
    12  H    0.170912
    13  H    0.176747
    14  C   -0.391231
    15  H    0.166498
    16  H    0.159797
 Sum of Mulliken charges =  -0.00000

 Dipole moment (field-independent basis, Debye):
    X=              0.0063    Y=             -0.4291    Z=              0.0027  Tot=              0.4291
 Quadrupole moment (field-independent basis, Debye-Ang):
   XX=            -40.4617   YY=            -36.9247   ZZ=            -35.3439
   XY=             -0.0034   XZ=             -0.4816   YZ=             -0.0101

  Exact polarizability:   0.000   0.000   0.000   0.000   0.000   0.000
 Approx polarizability:  66.667   0.084  92.616  10.195  -0.048  86.710

 Normal termination of Gaussian 16 at Thu Jun 16 10:05:02 2022.
